<?xml version="1.0" encoding="UTF-8"?>

<!-- generated on Sex 25 Mar 2016 09:14:39 BRT by SUMO gui Version 0.25.0
<?xml version="1.0" encoding="UTF-8"?>

<configuration xmlns:xsi="http://www.w3.org/2001/XMLSchema-instance" xsi:noNamespaceSchemaLocation="http://sumo.dlr.de/xsd/sumo-gui.exeConfiguration.xsd">

    <input>
        <net-file value="/home/alpha/mininet-wifi/mininet/sumo/data/map.net.xml"/>
        <route-files value="/home/alpha/mininet-wifi/mininet/sumo/data/map.rou.xml"/>
    </input>

    <output>
        <tripinfo-output value="/home/alpha/mininet-wifi/mininet/sumo/data/maptripinfo.out.xml"/>
        <save-state.prefix value="/home/alpha/mininet-wifi/mininet/sumo/data/state"/>
    </output>

    <time>
        <begin value="0"/>
    </time>

    <processing>
        <time-to-teleport value="100"/>
        <lanechange.allow-swap value="true"/>
    </processing>

    <report>
        <no-step-log value="true"/>
    </report>

    <emissions>
        <phemlight-path value="/home/alpha/mininet-wifi/mininet/sumo/data/./PHEMlight/"/>
    </emissions>

    <traci_server>
        <remote-port value="8813"/>
    </traci_server>

</configuration>
-->

<tripinfos xmlns:xsi="http://www.w3.org/2001/XMLSchema-instance" xsi:noNamespaceSchemaLocation="http://sumo.dlr.de/xsd/tripinfo_file.xsd">
</tripinfos>
