<?xml version="1.0"?>

<!-- generated on mar. 17 sept. 2013 14:49:52 CEST by SUMO gui Version 0.16.0
<?xml version="1.0" encoding="UTF-8"?>

<configuration xmlns:xsi="http://www.w3.org/2001/XMLSchema-instance" xsi:noNamespaceSchemaLocation="http://sumo.sf.net/xsd/sumo-gui.exeConfiguration.xsd">

    <input>
        <net-file value="data/map.net.xml"/>
        <route-files value="data/map.rou.xml"/>
    </input>

    <output>
        <tripinfo-output value="data/maptripinfoWO.out.xml"/>
    </output>

    <time>
        <begin value="0"/>
    </time>

    <processing>
        <time-to-teleport value="-1"/>
        <lanechange.allow-swap value="true"/>
    </processing>

    <report>
        <no-step-log value="true"/>
    </report>

</configuration>
-->

<tripinfos>
    <tripinfo id="4" depart="4.00" departLane="-130096026#2_0" departPos="5.10" departSpeed="0.00" departDelay="0.00" arrival="76.00" arrivalLane="7345536#1_0" arrivalPos="284.62" arrivalSpeed="13.01" duration="72.00" routeLength="856.15" waitSteps="0" rerouteNo="0" devices="tripinfo_4" vType="DEFAULT_VEHTYPE" vaporized=""/>
    <tripinfo id="39" depart="39.00" departLane="19897787#3_0" departPos="5.10" departSpeed="0.00" departDelay="0.00" arrival="97.00" arrivalLane="8100173#0_0" arrivalPos="25.73" arrivalSpeed="12.51" duration="58.00" routeLength="537.78" waitSteps="0" rerouteNo="0" devices="tripinfo_39" vType="DEFAULT_VEHTYPE" vaporized=""/>
    <tripinfo id="0" depart="0.00" departLane="130801488#3_0" departPos="5.10" departSpeed="0.00" departDelay="0.00" arrival="102.00" arrivalLane="130096034#0_0" arrivalPos="10.08" arrivalSpeed="9.63" duration="102.00" routeLength="816.24" waitSteps="23" rerouteNo="0" devices="tripinfo_0" vType="DEFAULT_VEHTYPE" vaporized=""/>
    <tripinfo id="31" depart="34.00" departLane="181422641#2_0" departPos="5.10" departSpeed="0.00" departDelay="3.00" arrival="104.00" arrivalLane="209183487#6_1" arrivalPos="108.04" arrivalSpeed="26.90" duration="70.00" routeLength="896.83" waitSteps="0" rerouteNo="0" devices="tripinfo_31" vType="DEFAULT_VEHTYPE" vaporized=""/>
    <tripinfo id="19" depart="19.00" departLane="130801488#7_0" departPos="5.10" departSpeed="0.00" departDelay="0.00" arrival="110.00" arrivalLane="131817724#1_0" arrivalPos="29.44" arrivalSpeed="7.72" duration="91.00" routeLength="863.02" waitSteps="8" rerouteNo="0" devices="tripinfo_19" vType="DEFAULT_VEHTYPE" vaporized=""/>
    <tripinfo id="20" depart="20.00" departLane="33581447#0_0" departPos="5.10" departSpeed="0.00" departDelay="0.00" arrival="125.00" arrivalLane="7345553#4_0" arrivalPos="153.17" arrivalSpeed="12.93" duration="105.00" routeLength="712.85" waitSteps="20" rerouteNo="0" devices="tripinfo_20" vType="DEFAULT_VEHTYPE" vaporized=""/>
    <tripinfo id="2" depart="2.00" departLane="4325634#1_0" departPos="5.10" departSpeed="0.00" departDelay="0.00" arrival="127.00" arrivalLane="207908664#3_1" arrivalPos="220.14" arrivalSpeed="26.63" duration="125.00" routeLength="689.58" waitSteps="53" rerouteNo="0" devices="tripinfo_2" vType="DEFAULT_VEHTYPE" vaporized=""/>
    <tripinfo id="25" depart="25.00" departLane="7655231#3_0" departPos="5.10" departSpeed="0.00" departDelay="0.00" arrival="129.00" arrivalLane="18498052_0" arrivalPos="145.01" arrivalSpeed="12.85" duration="104.00" routeLength="1613.68" waitSteps="0" rerouteNo="0" devices="tripinfo_25" vType="DEFAULT_VEHTYPE" vaporized=""/>
    <tripinfo id="9" depart="9.00" departLane="33581445#1_0" departPos="5.10" departSpeed="0.00" departDelay="0.00" arrival="138.00" arrivalLane="119440078#3_1" arrivalPos="40.60" arrivalSpeed="14.80" duration="129.00" routeLength="1361.33" waitSteps="22" rerouteNo="0" devices="tripinfo_9" vType="DEFAULT_VEHTYPE" vaporized=""/>
    <tripinfo id="7" depart="7.00" departLane="-150882376_0" departPos="5.10" departSpeed="0.00" departDelay="0.00" arrival="151.00" arrivalLane="8080873#3_0" arrivalPos="105.58" arrivalSpeed="13.12" duration="144.00" routeLength="1111.88" waitSteps="48" rerouteNo="0" devices="tripinfo_7" vType="DEFAULT_VEHTYPE" vaporized=""/>
    <tripinfo id="38" depart="38.00" departLane="119438058#0_0" departPos="5.10" departSpeed="0.00" departDelay="0.00" arrival="152.00" arrivalLane="33582223_0" arrivalPos="47.32" arrivalSpeed="7.76" duration="114.00" routeLength="983.40" waitSteps="13" rerouteNo="0" devices="tripinfo_38" vType="DEFAULT_VEHTYPE" vaporized=""/>
    <tripinfo id="15" depart="15.00" departLane="207728319#9_0" departPos="5.10" departSpeed="0.00" departDelay="0.00" arrival="157.00" arrivalLane="-207728319#9_0" arrivalPos="146.50" arrivalSpeed="7.04" duration="142.00" routeLength="613.46" waitSteps="71" rerouteNo="0" devices="tripinfo_15" vType="DEFAULT_VEHTYPE" vaporized=""/>
    <tripinfo id="32" depart="32.00" departLane="23892139_0" departPos="5.10" departSpeed="0.00" departDelay="0.00" arrival="179.00" arrivalLane="174044130#2_0" arrivalPos="52.45" arrivalSpeed="21.24" duration="147.00" routeLength="1470.80" waitSteps="22" rerouteNo="0" devices="tripinfo_32" vType="DEFAULT_VEHTYPE" vaporized=""/>
    <tripinfo id="23" depart="23.00" departLane="33300398_0" departPos="5.10" departSpeed="0.00" departDelay="0.00" arrival="180.00" arrivalLane="8080872#0_0" arrivalPos="105.27" arrivalSpeed="13.51" duration="157.00" routeLength="1933.55" waitSteps="18" rerouteNo="0" devices="tripinfo_23" vType="DEFAULT_VEHTYPE" vaporized=""/>
    <tripinfo id="3" depart="3.00" departLane="7345553#4_0" departPos="5.10" departSpeed="0.00" departDelay="0.00" arrival="200.00" arrivalLane="73012193_0" arrivalPos="15.12" arrivalSpeed="10.43" duration="197.00" routeLength="1131.19" waitSteps="83" rerouteNo="0" devices="tripinfo_3" vType="DEFAULT_VEHTYPE" vaporized=""/>
    <tripinfo id="34" depart="34.00" departLane="-119438059#0_0" departPos="5.10" departSpeed="0.00" departDelay="0.00" arrival="202.00" arrivalLane="126471497#0_1" arrivalPos="69.96" arrivalSpeed="16.50" duration="168.00" routeLength="1218.08" waitSteps="46" rerouteNo="0" devices="tripinfo_34" vType="DEFAULT_VEHTYPE" vaporized=""/>
    <tripinfo id="11" depart="11.00" departLane="19897790_0" departPos="5.10" departSpeed="0.00" departDelay="0.00" arrival="208.00" arrivalLane="8100173#5_0" arrivalPos="91.28" arrivalSpeed="6.90" duration="197.00" routeLength="1237.04" waitSteps="85" rerouteNo="0" devices="tripinfo_11" vType="DEFAULT_VEHTYPE" vaporized=""/>
    <tripinfo id="5" depart="5.00" departLane="207908670#8_0" departPos="5.10" departSpeed="0.00" departDelay="0.00" arrival="209.00" arrivalLane="8080872#0_0" arrivalPos="112.59" arrivalSpeed="12.73" duration="204.00" routeLength="1194.65" waitSteps="105" rerouteNo="0" devices="tripinfo_5" vType="DEFAULT_VEHTYPE" vaporized=""/>
    <tripinfo id="28" depart="28.00" departLane="33581445#1_0" departPos="5.10" departSpeed="0.00" departDelay="0.00" arrival="213.00" arrivalLane="8100173#1_0" arrivalPos="143.44" arrivalSpeed="21.00" duration="185.00" routeLength="1038.07" waitSteps="69" rerouteNo="0" devices="tripinfo_28" vType="DEFAULT_VEHTYPE" vaporized=""/>
    <tripinfo id="16" depart="16.00" departLane="126471497#0_0" departPos="5.10" departSpeed="0.00" departDelay="0.00" arrival="219.00" arrivalLane="8100173#6_0" arrivalPos="136.66" arrivalSpeed="21.60" duration="203.00" routeLength="1483.82" waitSteps="70" rerouteNo="0" devices="tripinfo_16" vType="DEFAULT_VEHTYPE" vaporized=""/>
    <tripinfo id="13" depart="13.00" departLane="4325632#1_0" departPos="5.10" departSpeed="0.00" departDelay="0.00" arrival="223.00" arrivalLane="130096026#2_0" arrivalPos="82.73" arrivalSpeed="13.28" duration="210.00" routeLength="1542.43" waitSteps="91" rerouteNo="0" devices="tripinfo_13" vType="DEFAULT_VEHTYPE" vaporized=""/>
    <tripinfo id="30" depart="30.00" departLane="8100173#6_0" departPos="5.10" departSpeed="0.00" departDelay="0.00" arrival="228.00" arrivalLane="119438059#0_0" arrivalPos="108.22" arrivalSpeed="21.07" duration="198.00" routeLength="1715.98" waitSteps="45" rerouteNo="0" devices="tripinfo_30" vType="DEFAULT_VEHTYPE" vaporized=""/>
    <tripinfo id="33" depart="33.00" departLane="4325634#8_0" departPos="5.10" departSpeed="0.00" departDelay="0.00" arrival="251.00" arrivalLane="207908664#2_1" arrivalPos="118.65" arrivalSpeed="23.61" duration="218.00" routeLength="737.42" waitSteps="124" rerouteNo="0" devices="tripinfo_33" vType="DEFAULT_VEHTYPE" vaporized=""/>
    <tripinfo id="10" depart="10.00" departLane="-7917435#3_0" departPos="5.10" departSpeed="0.00" departDelay="0.00" arrival="254.00" arrivalLane="7655234#1_0" arrivalPos="104.13" arrivalSpeed="13.22" duration="244.00" routeLength="1417.67" waitSteps="93" rerouteNo="0" devices="tripinfo_10" vType="DEFAULT_VEHTYPE" vaporized=""/>
    <tripinfo id="8" depart="8.00" departLane="8080873#0_0" departPos="5.10" departSpeed="0.00" departDelay="0.00" arrival="257.00" arrivalLane="119438058#5_0" arrivalPos="89.18" arrivalSpeed="13.65" duration="249.00" routeLength="1745.55" waitSteps="97" rerouteNo="0" devices="tripinfo_8" vType="DEFAULT_VEHTYPE" vaporized=""/>
    <tripinfo id="12" depart="12.00" departLane="33581450#0_0" departPos="5.10" departSpeed="0.00" departDelay="0.00" arrival="260.00" arrivalLane="115974092#1_0" arrivalPos="159.80" arrivalSpeed="13.15" duration="248.00" routeLength="1728.97" waitSteps="94" rerouteNo="0" devices="tripinfo_12" vType="DEFAULT_VEHTYPE" vaporized=""/>
    <tripinfo id="35" depart="35.00" departLane="130096026#3_0" departPos="5.10" departSpeed="0.00" departDelay="0.00" arrival="269.00" arrivalLane="-7653575#0_0" arrivalPos="67.11" arrivalSpeed="21.96" duration="234.00" routeLength="1985.99" waitSteps="76" rerouteNo="0" devices="tripinfo_35" vType="DEFAULT_VEHTYPE" vaporized=""/>
    <tripinfo id="26" depart="26.00" departLane="-30836054#2_0" departPos="5.10" departSpeed="0.00" departDelay="0.00" arrival="271.00" arrivalLane="207908670#5_0" arrivalPos="21.93" arrivalSpeed="10.12" duration="245.00" routeLength="1181.83" waitSteps="133" rerouteNo="0" devices="tripinfo_26" vType="DEFAULT_VEHTYPE" vaporized=""/>
    <tripinfo id="17" depart="17.00" departLane="209183483#5_0" departPos="5.10" departSpeed="0.00" departDelay="0.00" arrival="275.00" arrivalLane="-7655234#2_0" arrivalPos="106.22" arrivalSpeed="13.29" duration="258.00" routeLength="1436.46" waitSteps="91" rerouteNo="0" devices="tripinfo_17" vType="DEFAULT_VEHTYPE" vaporized=""/>
    <tripinfo id="36" depart="36.00" departLane="-219406890#0_0" departPos="5.10" departSpeed="0.00" departDelay="0.00" arrival="276.00" arrivalLane="12182455_0" arrivalPos="314.27" arrivalSpeed="13.78" duration="240.00" routeLength="1353.51" waitSteps="109" rerouteNo="0" devices="tripinfo_36" vType="DEFAULT_VEHTYPE" vaporized=""/>
    <tripinfo id="21" depart="21.00" departLane="-130096026#4_0" departPos="5.10" departSpeed="0.00" departDelay="0.00" arrival="284.00" arrivalLane="180814145#3_0" arrivalPos="105.16" arrivalSpeed="12.65" duration="263.00" routeLength="2143.56" waitSteps="93" rerouteNo="0" devices="tripinfo_21" vType="DEFAULT_VEHTYPE" vaporized=""/>
    <tripinfo id="18" depart="20.00" departLane="-29205083_0" departPos="5.10" departSpeed="0.00" departDelay="2.00" arrival="290.00" arrivalLane="38771465_0" arrivalPos="238.88" arrivalSpeed="12.89" duration="270.00" routeLength="2142.54" waitSteps="101" rerouteNo="0" devices="tripinfo_18" vType="DEFAULT_VEHTYPE" vaporized=""/>
    <tripinfo id="14" depart="14.00" departLane="25809315#0_0" departPos="5.10" departSpeed="0.00" departDelay="0.00" arrival="303.00" arrivalLane="23892139_0" arrivalPos="184.38" arrivalSpeed="13.13" duration="289.00" routeLength="1376.92" waitSteps="135" rerouteNo="0" devices="tripinfo_14" vType="DEFAULT_VEHTYPE" vaporized=""/>
    <tripinfo id="22" depart="22.00" departLane="207210792#2_0" departPos="5.10" departSpeed="0.00" departDelay="0.00" arrival="306.00" arrivalLane="34484973_0" arrivalPos="212.03" arrivalSpeed="13.01" duration="284.00" routeLength="2283.67" waitSteps="94" rerouteNo="0" devices="tripinfo_22" vType="DEFAULT_VEHTYPE" vaporized=""/>
    <tripinfo id="37" depart="37.00" departLane="-7655226#2_0" departPos="5.10" departSpeed="0.00" departDelay="0.00" arrival="332.00" arrivalLane="124327153_0" arrivalPos="32.83" arrivalSpeed="15.83" duration="295.00" routeLength="1612.39" waitSteps="143" rerouteNo="0" devices="tripinfo_37" vType="DEFAULT_VEHTYPE" vaporized=""/>
    <tripinfo id="27" depart="27.00" departLane="130096026#0_0" departPos="5.10" departSpeed="0.00" departDelay="0.00" arrival="339.00" arrivalLane="7655226#2_0" arrivalPos="221.57" arrivalSpeed="20.96" duration="312.00" routeLength="1900.83" waitSteps="142" rerouteNo="0" devices="tripinfo_27" vType="DEFAULT_VEHTYPE" vaporized=""/>
    <tripinfo id="6" depart="6.00" departLane="-38771464_0" departPos="5.10" departSpeed="0.00" departDelay="0.00" arrival="339.00" arrivalLane="130096032#1_0" arrivalPos="24.63" arrivalSpeed="7.30" duration="333.00" routeLength="1956.49" waitSteps="168" rerouteNo="0" devices="tripinfo_6" vType="DEFAULT_VEHTYPE" vaporized=""/>
    <tripinfo id="24" depart="24.00" departLane="156378607#1_0" departPos="5.10" departSpeed="0.00" departDelay="0.00" arrival="347.00" arrivalLane="4325632#0_0" arrivalPos="124.27" arrivalSpeed="21.49" duration="323.00" routeLength="2030.83" waitSteps="155" rerouteNo="0" devices="tripinfo_24" vType="DEFAULT_VEHTYPE" vaporized=""/>
</tripinfos>
